<?xml version="1.0" encoding="UTF-8"?>

<!-- generated on 2025-11-22T14:25:25.879148-03:00 by Eclipse SUMO GUI 1.25.0
<sumoConfiguration xmlns:xsi="http://www.w3.org/2001/XMLSchema-instance" xsi:noNamespaceSchemaLocation="http://sumo.dlr.de/xsd/sumoConfiguration.xsd">

    <input>
        <net-file value="sumo_config/intersection.net.xml"/>
        <route-files value="sumo_config/routes.rou.xml"/>
    </input>

    <output>
        <summary-output value="sumo_config/summary.xml"/>
        <tripinfo-output value="sumo_config/tripinfo.xml"/>
    </output>

    <time>
        <begin value="0"/>
        <end value="3600"/>
        <step-length value="1.0"/>
    </time>

    <processing>
        <lateral-resolution value="0.8"/>
        <ignore-route-errors value="true"/>
        <time-to-teleport value="-1"/>
        <waiting-time-memory value="300"/>
    </processing>

    <report>
        <xml-validation value="never"/>
        <no-warnings value="true"/>
        <no-step-log value="true"/>
    </report>

    <traci_server>
        <remote-port value="34351"/>
    </traci_server>

    <random_number>
        <seed value="42"/>
    </random_number>

    <gui_only>
        <gui-settings-file value="sumo_config/gui-settings.xml"/>
    </gui_only>

</sumoConfiguration>
-->

<tripinfos xmlns:xsi="http://www.w3.org/2001/XMLSchema-instance" xsi:noNamespaceSchemaLocation="http://sumo.dlr.de/xsd/tripinfo_file.xsd">
    <tripinfo id="flow_north_south.0" depart="0.00" departLane="north_in_0" departPos="5.10" departPosLat="0.00" departSpeed="0.00" departDelay="0.00" arrival="34.00" arrivalLane="south_out_0" arrivalPos="189.60" arrivalPosLat="0.00" arrivalSpeed="12.77" duration="34.00" routeLength="394.90" waitingTime="0.00" waitingCount="0" stopTime="0.00" timeLoss="4.01" rerouteNo="0" devices="tripinfo_flow_north_south.0" vType="car" speedFactor="0.95" vaporized=""/>
    <tripinfo id="flow_south_north.0" depart="0.00" departLane="south_in_0" departPos="5.10" departPosLat="0.00" departSpeed="0.00" departDelay="0.00" arrival="36.00" arrivalLane="north_out_0" arrivalPos="189.60" arrivalPosLat="0.00" arrivalSpeed="11.07" duration="36.00" routeLength="394.90" waitingTime="0.00" waitingCount="0" stopTime="0.00" timeLoss="3.69" rerouteNo="0" devices="tripinfo_flow_south_north.0" vType="car" speedFactor="0.88" vaporized=""/>
    <tripinfo id="flow_south_east.0" depart="3.00" departLane="south_in_0" departPos="5.10" departPosLat="0.00" departSpeed="0.00" departDelay="3.00" arrival="40.00" arrivalLane="east_out_1" arrivalPos="189.60" arrivalPosLat="0.00" arrivalSpeed="11.76" duration="37.00" routeLength="388.29" waitingTime="0.00" waitingCount="0" stopTime="0.00" timeLoss="5.80" rerouteNo="0" devices="tripinfo_flow_south_east.0" vType="car" speedFactor="0.93" vaporized=""/>
    <tripinfo id="flow_east_north.0" depart="3.00" departLane="east_in_0" departPos="5.10" departPosLat="0.00" departSpeed="0.00" departDelay="3.00" arrival="43.00" arrivalLane="north_out_1" arrivalPos="189.60" arrivalPosLat="0.00" arrivalSpeed="14.85" duration="40.00" routeLength="388.29" waitingTime="4.00" waitingCount="1" stopTime="0.00" timeLoss="14.57" rerouteNo="0" devices="tripinfo_flow_east_north.0" vType="car" speedFactor="1.13" vaporized=""/>
    <tripinfo id="flow_east_west.0" depart="0.00" departLane="east_in_0" departPos="5.10" departPosLat="0.00" departSpeed="0.00" departDelay="0.00" arrival="48.00" arrivalLane="west_out_0" arrivalPos="189.60" arrivalPosLat="0.00" arrivalSpeed="13.82" duration="48.00" routeLength="394.90" waitingTime="6.00" waitingCount="1" stopTime="0.00" timeLoss="20.36" rerouteNo="0" devices="tripinfo_flow_east_west.0" vType="car" speedFactor="1.03" vaporized=""/>
    <tripinfo id="flow_west_east.0" depart="0.00" departLane="west_in_0" departPos="5.10" departPosLat="0.00" departSpeed="0.00" departDelay="0.00" arrival="48.00" arrivalLane="east_out_0" arrivalPos="189.60" arrivalPosLat="0.00" arrivalSpeed="11.52" duration="48.00" routeLength="394.90" waitingTime="6.00" waitingCount="1" stopTime="0.00" timeLoss="13.95" rerouteNo="0" devices="tripinfo_flow_west_east.0" vType="car" speedFactor="0.84" vaporized=""/>
    <tripinfo id="flow_buses.0" depart="10.00" departLane="east_in_0" departPos="15.10" departPosLat="0.00" departSpeed="0.00" departDelay="10.00" arrival="51.00" arrivalLane="west_out_0" arrivalPos="189.60" arrivalPosLat="0.00" arrivalSpeed="16.15" duration="41.00" routeLength="384.90" waitingTime="0.00" waitingCount="0" stopTime="0.00" timeLoss="17.07" rerouteNo="0" devices="tripinfo_flow_buses.0" vType="bus" speedFactor="1.16" vaporized=""/>
    <tripinfo id="flow_west_north.0" depart="3.00" departLane="west_in_0" departPos="5.10" departPosLat="0.00" departSpeed="0.00" departDelay="3.00" arrival="74.00" arrivalLane="north_out_0" arrivalPos="189.60" arrivalPosLat="0.00" arrivalSpeed="12.70" duration="71.00" routeLength="396.09" waitingTime="32.00" waitingCount="1" stopTime="0.00" timeLoss="41.59" rerouteNo="0" devices="tripinfo_flow_west_north.0" vType="car" speedFactor="1.00" vaporized=""/>
    <tripinfo id="flow_east_south.0" depart="6.00" departLane="east_in_0" departPos="5.10" departPosLat="0.00" departSpeed="0.00" departDelay="6.00" arrival="76.00" arrivalLane="south_out_0" arrivalPos="189.60" arrivalPosLat="0.00" arrivalSpeed="11.29" duration="70.00" routeLength="396.09" waitingTime="25.00" waitingCount="2" stopTime="0.00" timeLoss="36.74" rerouteNo="0" devices="tripinfo_flow_east_south.0" vType="car" speedFactor="0.88" vaporized=""/>
    <tripinfo id="flow_south_north.1" depart="40.00" departLane="south_in_0" departPos="5.10" departPosLat="0.00" departSpeed="0.00" departDelay="0.00" arrival="85.00" arrivalLane="north_out_0" arrivalPos="189.60" arrivalPosLat="0.00" arrivalSpeed="14.55" duration="45.00" routeLength="394.90" waitingTime="8.00" waitingCount="1" stopTime="0.00" timeLoss="19.18" rerouteNo="0" devices="tripinfo_flow_south_north.1" vType="car" speedFactor="1.13" vaporized=""/>
    <tripinfo id="flow_trucks.0" depart="10.00" departLane="north_in_0" departPos="12.10" departPosLat="0.00" departSpeed="0.00" departDelay="10.00" arrival="91.00" arrivalLane="south_out_0" arrivalPos="189.60" arrivalPosLat="0.00" arrivalSpeed="11.09" duration="81.00" routeLength="387.90" waitingTime="36.00" waitingCount="1" stopTime="0.00" timeLoss="45.82" rerouteNo="0" devices="tripinfo_flow_trucks.0" vType="truck" speedFactor="0.82" vaporized=""/>
    <tripinfo id="flow_north_south.1" depart="36.00" departLane="north_in_0" departPos="5.10" departPosLat="0.00" departSpeed="0.00" departDelay="0.00" arrival="93.00" arrivalLane="south_out_0" arrivalPos="189.60" arrivalPosLat="0.00" arrivalSpeed="12.10" duration="57.00" routeLength="394.90" waitingTime="13.00" waitingCount="1" stopTime="0.00" timeLoss="26.06" rerouteNo="0" devices="tripinfo_flow_north_south.1" vType="car" speedFactor="0.94" vaporized=""/>
    <tripinfo id="flow_north_south.2" depart="72.00" departLane="north_in_0" departPos="5.10" departPosLat="0.00" departSpeed="0.00" departDelay="0.00" arrival="105.00" arrivalLane="south_out_0" arrivalPos="189.60" arrivalPosLat="0.00" arrivalSpeed="13.53" duration="33.00" routeLength="394.90" waitingTime="0.00" waitingCount="0" stopTime="0.00" timeLoss="4.18" rerouteNo="0" devices="tripinfo_flow_north_south.2" vType="car" speedFactor="1.00" vaporized=""/>
    <tripinfo id="flow_south_west.0" depart="6.00" departLane="south_in_0" departPos="5.10" departPosLat="0.00" departSpeed="0.00" departDelay="6.00" arrival="113.00" arrivalLane="west_out_0" arrivalPos="189.60" arrivalPosLat="0.00" arrivalSpeed="14.61" duration="107.00" routeLength="396.09" waitingTime="70.00" waitingCount="1" stopTime="0.00" timeLoss="79.86" rerouteNo="0" devices="tripinfo_flow_south_west.0" vType="car" speedFactor="1.08" vaporized=""/>
    <tripinfo id="flow_north_east.0" depart="3.00" departLane="north_in_0" departPos="5.10" departPosLat="0.00" departSpeed="0.00" departDelay="3.00" arrival="114.00" arrivalLane="east_out_0" arrivalPos="189.60" arrivalPosLat="0.00" arrivalSpeed="14.27" duration="111.00" routeLength="396.09" waitingTime="73.00" waitingCount="1" stopTime="0.00" timeLoss="83.44" rerouteNo="0" devices="tripinfo_flow_north_east.0" vType="car" speedFactor="1.07" vaporized=""/>
    <tripinfo id="flow_east_north.1" depart="83.00" departLane="east_in_0" departPos="5.10" departPosLat="0.00" departSpeed="0.00" departDelay="3.00" arrival="126.00" arrivalLane="north_out_1" arrivalPos="189.60" arrivalPosLat="0.00" arrivalSpeed="14.27" duration="43.00" routeLength="388.29" waitingTime="7.00" waitingCount="1" stopTime="0.00" timeLoss="16.46" rerouteNo="0" devices="tripinfo_flow_east_north.1" vType="car" speedFactor="1.08" vaporized=""/>
    <tripinfo id="flow_west_south.0" depart="6.00" departLane="west_in_0" departPos="5.10" departPosLat="0.00" departSpeed="0.00" departDelay="6.00" arrival="127.00" arrivalLane="south_out_1" arrivalPos="189.60" arrivalPosLat="0.00" arrivalSpeed="13.74" duration="121.00" routeLength="388.29" waitingTime="79.00" waitingCount="3" stopTime="0.00" timeLoss="92.21" rerouteNo="0" devices="tripinfo_flow_west_south.0" vType="car" speedFactor="0.99" vaporized=""/>
    <tripinfo id="flow_west_east.1" depart="36.00" departLane="west_in_0" departPos="5.10" departPosLat="0.00" departSpeed="0.00" departDelay="0.00" arrival="133.00" arrivalLane="east_out_0" arrivalPos="189.60" arrivalPosLat="0.00" arrivalSpeed="12.80" duration="97.00" routeLength="394.90" waitingTime="52.00" waitingCount="1" stopTime="0.00" timeLoss="67.63" rerouteNo="0" devices="tripinfo_flow_west_east.1" vType="car" speedFactor="0.99" vaporized=""/>
    <tripinfo id="flow_east_west.1" depart="40.00" departLane="east_in_0" departPos="5.10" departPosLat="0.00" departSpeed="0.00" departDelay="0.00" arrival="133.00" arrivalLane="west_out_0" arrivalPos="189.60" arrivalPosLat="0.00" arrivalSpeed="11.60" duration="93.00" routeLength="394.90" waitingTime="47.00" waitingCount="1" stopTime="0.00" timeLoss="59.83" rerouteNo="0" devices="tripinfo_flow_east_west.1" vType="car" speedFactor="0.88" vaporized=""/>
    <tripinfo id="flow_west_east.2" depart="72.00" departLane="west_in_0" departPos="5.10" departPosLat="0.00" departSpeed="0.00" departDelay="0.00" arrival="134.00" arrivalLane="east_out_0" arrivalPos="189.60" arrivalPosLat="0.00" arrivalSpeed="14.37" duration="62.00" routeLength="394.90" waitingTime="20.00" waitingCount="1" stopTime="0.00" timeLoss="35.99" rerouteNo="0" devices="tripinfo_flow_west_east.2" vType="car" speedFactor="1.10" vaporized=""/>
    <tripinfo id="flow_east_west.2" depart="80.00" departLane="east_in_0" departPos="5.10" departPosLat="0.00" departSpeed="0.00" departDelay="0.00" arrival="134.00" arrivalLane="west_out_0" arrivalPos="189.60" arrivalPosLat="0.00" arrivalSpeed="12.13" duration="54.00" routeLength="394.90" waitingTime="9.00" waitingCount="1" stopTime="0.00" timeLoss="24.68" rerouteNo="0" devices="tripinfo_flow_east_west.2" vType="car" speedFactor="0.97" vaporized=""/>
    <tripinfo id="flow_west_east.3" depart="108.00" departLane="west_in_0" departPos="5.10" departPosLat="0.00" departSpeed="0.00" departDelay="0.00" arrival="139.00" arrivalLane="east_out_0" arrivalPos="189.60" arrivalPosLat="0.00" arrivalSpeed="14.93" duration="31.00" routeLength="394.90" waitingTime="0.00" waitingCount="0" stopTime="0.00" timeLoss="3.86" rerouteNo="0" devices="tripinfo_flow_west_east.3" vType="car" speedFactor="1.08" vaporized=""/>
    <tripinfo id="flow_west_north.1" depart="75.00" departLane="west_in_0" departPos="5.10" departPosLat="0.00" departSpeed="0.00" departDelay="3.00" arrival="157.00" arrivalLane="north_out_0" arrivalPos="189.60" arrivalPosLat="0.00" arrivalSpeed="12.04" duration="82.00" routeLength="396.09" waitingTime="36.00" waitingCount="2" stopTime="0.00" timeLoss="48.68" rerouteNo="0" devices="tripinfo_flow_west_north.1" vType="car" speedFactor="0.87" vaporized=""/>
    <tripinfo id="flow_east_south.1" depart="90.00" departLane="east_in_0" departPos="5.10" departPosLat="0.00" departSpeed="0.00" departDelay="0.00" arrival="157.00" arrivalLane="south_out_0" arrivalPos="189.60" arrivalPosLat="0.00" arrivalSpeed="12.24" duration="67.00" routeLength="396.09" waitingTime="22.00" waitingCount="1" stopTime="0.00" timeLoss="34.84" rerouteNo="0" devices="tripinfo_flow_east_south.1" vType="car" speedFactor="0.91" vaporized=""/>
    <tripinfo id="flow_south_north.2" depart="80.00" departLane="south_in_0" departPos="5.10" departPosLat="0.00" departSpeed="0.00" departDelay="0.00" arrival="167.00" arrivalLane="north_out_0" arrivalPos="189.60" arrivalPosLat="0.00" arrivalSpeed="14.08" duration="87.00" routeLength="394.90" waitingTime="51.00" waitingCount="1" stopTime="0.00" timeLoss="59.89" rerouteNo="0" devices="tripinfo_flow_south_north.2" vType="car" speedFactor="1.05" vaporized=""/>
    <tripinfo id="flow_north_west.0" depart="6.00" departLane="north_in_0" departPos="5.10" departPosLat="0.00" departSpeed="0.00" departDelay="6.00" arrival="169.00" arrivalLane="west_out_1" arrivalPos="189.60" arrivalPosLat="0.00" arrivalSpeed="15.83" duration="163.00" routeLength="388.29" waitingTime="120.00" waitingCount="2" stopTime="0.00" timeLoss="138.17" rerouteNo="0" devices="tripinfo_flow_north_west.0" vType="car" speedFactor="1.16" vaporized=""/>
    <tripinfo id="flow_north_south.3" depart="108.00" departLane="north_in_0" departPos="5.10" departPosLat="0.00" departSpeed="0.00" departDelay="0.00" arrival="169.00" arrivalLane="south_out_0" arrivalPos="189.60" arrivalPosLat="0.00" arrivalSpeed="12.34" duration="61.00" routeLength="394.90" waitingTime="20.00" waitingCount="1" stopTime="0.00" timeLoss="30.52" rerouteNo="0" devices="tripinfo_flow_north_south.3" vType="car" speedFactor="0.94" vaporized=""/>
    <tripinfo id="flow_south_east.1" depart="83.00" departLane="south_in_0" departPos="5.10" departPosLat="0.00" departSpeed="0.00" departDelay="3.00" arrival="170.00" arrivalLane="east_out_1" arrivalPos="189.60" arrivalPosLat="0.00" arrivalSpeed="14.91" duration="87.00" routeLength="388.29" waitingTime="49.00" waitingCount="1" stopTime="0.00" timeLoss="61.33" rerouteNo="0" devices="tripinfo_flow_south_east.1" vType="car" speedFactor="1.12" vaporized=""/>
    <tripinfo id="flow_north_south.4" depart="144.00" departLane="north_in_0" departPos="5.10" departPosLat="0.00" departSpeed="0.00" departDelay="0.00" arrival="174.00" arrivalLane="south_out_0" arrivalPos="189.60" arrivalPosLat="0.00" arrivalSpeed="15.46" duration="30.00" routeLength="394.90" waitingTime="0.00" waitingCount="0" stopTime="0.00" timeLoss="4.46" rerouteNo="0" devices="tripinfo_flow_north_south.4" vType="car" speedFactor="1.15" vaporized=""/>
    <tripinfo id="flow_south_north.3" depart="120.00" departLane="south_in_0" departPos="5.10" departPosLat="0.00" departSpeed="0.00" departDelay="0.00" arrival="178.00" arrivalLane="north_out_0" arrivalPos="189.60" arrivalPosLat="0.00" arrivalSpeed="11.13" duration="58.00" routeLength="394.90" waitingTime="10.00" waitingCount="2" stopTime="0.00" timeLoss="23.33" rerouteNo="0" devices="tripinfo_flow_south_north.3" vType="car" speedFactor="0.82" vaporized=""/>
    <tripinfo id="flow_north_east.1" depart="75.00" departLane="north_in_0" departPos="5.10" departPosLat="0.00" departSpeed="0.00" departDelay="3.00" arrival="195.00" arrivalLane="east_out_0" arrivalPos="189.60" arrivalPosLat="0.00" arrivalSpeed="16.15" duration="120.00" routeLength="396.09" waitingTime="75.00" waitingCount="3" stopTime="0.00" timeLoss="95.77" rerouteNo="0" devices="tripinfo_flow_north_east.1" vType="car" speedFactor="1.24" vaporized=""/>
    <tripinfo id="flow_south_west.1" depart="103.00" departLane="south_in_0" departPos="5.10" departPosLat="0.00" departSpeed="0.00" departDelay="0.14" arrival="195.00" arrivalLane="west_out_0" arrivalPos="189.60" arrivalPosLat="0.00" arrivalSpeed="14.87" duration="92.00" routeLength="396.09" waitingTime="49.00" waitingCount="2" stopTime="0.00" timeLoss="65.02" rerouteNo="0" devices="tripinfo_flow_south_west.1" vType="car" speedFactor="1.08" vaporized=""/>
    <tripinfo id="flow_west_east.4" depart="144.00" departLane="west_in_0" departPos="5.10" departPosLat="0.00" departSpeed="0.00" departDelay="0.00" arrival="209.00" arrivalLane="east_out_0" arrivalPos="189.60" arrivalPosLat="0.00" arrivalSpeed="13.70" duration="65.00" routeLength="394.90" waitingTime="27.00" waitingCount="1" stopTime="0.00" timeLoss="37.64" rerouteNo="0" devices="tripinfo_flow_west_east.4" vType="car" speedFactor="1.06" vaporized=""/>
    <tripinfo id="flow_east_west.3" depart="120.00" departLane="east_in_0" departPos="5.10" departPosLat="0.00" departSpeed="0.00" departDelay="0.00" arrival="210.00" arrivalLane="west_out_0" arrivalPos="189.60" arrivalPosLat="0.00" arrivalSpeed="13.83" duration="90.00" routeLength="394.90" waitingTime="51.00" waitingCount="1" stopTime="0.00" timeLoss="60.89" rerouteNo="0" devices="tripinfo_flow_east_west.3" vType="car" speedFactor="1.01" vaporized=""/>
    <tripinfo id="flow_west_south.1" depart="90.00" departLane="west_in_0" departPos="5.10" departPosLat="0.00" departSpeed="0.00" departDelay="0.00" arrival="212.00" arrivalLane="south_out_1" arrivalPos="189.60" arrivalPosLat="0.00" arrivalSpeed="13.04" duration="122.00" routeLength="388.29" waitingTime="71.00" waitingCount="3" stopTime="0.00" timeLoss="93.42" rerouteNo="0" devices="tripinfo_flow_west_south.1" vType="car" speedFactor="1.00" vaporized=""/>
    <tripinfo id="flow_east_north.2" depart="163.00" departLane="east_in_0" departPos="5.10" departPosLat="0.00" departSpeed="0.00" departDelay="3.00" arrival="213.00" arrivalLane="north_out_1" arrivalPos="189.60" arrivalPosLat="0.00" arrivalSpeed="12.71" duration="50.00" routeLength="388.29" waitingTime="7.00" waitingCount="1" stopTime="0.00" timeLoss="19.61" rerouteNo="0" devices="tripinfo_flow_east_north.2" vType="car" speedFactor="0.95" vaporized=""/>
    <tripinfo id="flow_west_east.5" depart="180.00" departLane="west_in_0" departPos="5.10" departPosLat="0.00" departSpeed="0.00" departDelay="0.00" arrival="216.00" arrivalLane="east_out_0" arrivalPos="189.60" arrivalPosLat="0.00" arrivalSpeed="13.58" duration="36.00" routeLength="394.90" waitingTime="0.00" waitingCount="0" stopTime="0.00" timeLoss="6.33" rerouteNo="0" devices="tripinfo_flow_west_east.5" vType="car" speedFactor="0.99" vaporized=""/>
    <tripinfo id="flow_east_west.4" depart="160.00" departLane="east_in_0" departPos="5.10" departPosLat="0.00" departSpeed="0.00" departDelay="0.00" arrival="219.00" arrivalLane="west_out_0" arrivalPos="189.60" arrivalPosLat="0.00" arrivalSpeed="10.76" duration="59.00" routeLength="394.90" waitingTime="11.00" waitingCount="1" stopTime="0.00" timeLoss="25.92" rerouteNo="0" devices="tripinfo_flow_east_west.4" vType="car" speedFactor="0.86" vaporized=""/>
    <tripinfo id="flow_west_north.2" depart="147.00" departLane="west_in_0" departPos="5.10" departPosLat="0.00" departSpeed="0.00" departDelay="3.00" arrival="237.00" arrivalLane="north_out_0" arrivalPos="189.60" arrivalPosLat="0.00" arrivalSpeed="14.14" duration="90.00" routeLength="396.09" waitingTime="47.00" waitingCount="2" stopTime="0.00" timeLoss="62.20" rerouteNo="0" devices="tripinfo_flow_west_north.2" vType="car" speedFactor="1.07" vaporized=""/>
    <tripinfo id="flow_east_south.2" depart="180.00" departLane="east_in_0" departPos="5.10" departPosLat="0.00" departSpeed="0.00" departDelay="0.00" arrival="237.00" arrivalLane="south_out_0" arrivalPos="189.60" arrivalPosLat="0.00" arrivalSpeed="14.35" duration="57.00" routeLength="396.09" waitingTime="20.00" waitingCount="1" stopTime="0.00" timeLoss="30.28" rerouteNo="0" devices="tripinfo_flow_east_south.2" vType="car" speedFactor="1.12" vaporized=""/>
    <tripinfo id="flow_south_north.4" depart="160.00" departLane="south_in_0" departPos="5.10" departPosLat="0.00" departSpeed="0.00" departDelay="0.00" arrival="250.00" arrivalLane="north_out_0" arrivalPos="189.60" arrivalPosLat="0.00" arrivalSpeed="13.99" duration="90.00" routeLength="394.90" waitingTime="51.00" waitingCount="1" stopTime="0.00" timeLoss="62.27" rerouteNo="0" devices="tripinfo_flow_south_north.4" vType="car" speedFactor="1.06" vaporized=""/>
    <tripinfo id="flow_north_south.5" depart="180.00" departLane="north_in_0" departPos="5.10" departPosLat="0.00" departSpeed="0.00" departDelay="0.00" arrival="251.00" arrivalLane="south_out_0" arrivalPos="189.60" arrivalPosLat="0.00" arrivalSpeed="11.88" duration="71.00" routeLength="394.90" waitingTime="29.00" waitingCount="1" stopTime="0.00" timeLoss="40.21" rerouteNo="0" devices="tripinfo_flow_north_south.5" vType="car" speedFactor="0.94" vaporized=""/>
    <tripinfo id="flow_south_east.2" depart="163.00" departLane="south_in_0" departPos="5.10" departPosLat="0.00" departSpeed="0.00" departDelay="3.00" arrival="254.00" arrivalLane="east_out_1" arrivalPos="189.60" arrivalPosLat="0.00" arrivalSpeed="11.65" duration="91.00" routeLength="388.29" waitingTime="47.00" waitingCount="1" stopTime="0.00" timeLoss="59.73" rerouteNo="0" devices="tripinfo_flow_south_east.2" vType="car" speedFactor="0.92" vaporized=""/>
    <tripinfo id="flow_north_west.1" depart="90.00" departLane="north_in_0" departPos="5.10" departPosLat="0.00" departSpeed="0.00" departDelay="0.00" arrival="255.00" arrivalLane="west_out_1" arrivalPos="189.60" arrivalPosLat="0.00" arrivalSpeed="12.09" duration="165.00" routeLength="388.29" waitingTime="112.00" waitingCount="3" stopTime="0.00" timeLoss="133.95" rerouteNo="0" devices="tripinfo_flow_north_west.1" vType="car" speedFactor="0.94" vaporized=""/>
    <tripinfo id="flow_south_north.5" depart="200.00" departLane="south_in_0" departPos="5.10" departPosLat="0.00" departSpeed="0.00" departDelay="0.00" arrival="257.00" arrivalLane="north_out_0" arrivalPos="189.60" arrivalPosLat="0.00" arrivalSpeed="14.25" duration="57.00" routeLength="394.90" waitingTime="13.00" waitingCount="1" stopTime="0.00" timeLoss="28.78" rerouteNo="0" devices="tripinfo_flow_south_north.5" vType="car" speedFactor="1.03" vaporized=""/>
    <tripinfo id="flow_north_south.6" depart="216.00" departLane="north_in_0" departPos="5.10" departPosLat="0.00" departSpeed="0.00" departDelay="0.00" arrival="258.00" arrivalLane="south_out_0" arrivalPos="189.60" arrivalPosLat="0.00" arrivalSpeed="13.45" duration="42.00" routeLength="394.90" waitingTime="3.00" waitingCount="1" stopTime="0.00" timeLoss="13.50" rerouteNo="0" devices="tripinfo_flow_north_south.6" vType="car" speedFactor="1.02" vaporized=""/>
    <tripinfo id="flow_south_north.6" depart="240.00" departLane="south_in_0" departPos="5.10" departPosLat="0.00" departSpeed="0.00" departDelay="0.00" arrival="271.00" arrivalLane="north_out_0" arrivalPos="189.60" arrivalPosLat="0.00" arrivalSpeed="14.49" duration="31.00" routeLength="394.90" waitingTime="0.00" waitingCount="0" stopTime="0.00" timeLoss="4.97" rerouteNo="0" devices="tripinfo_flow_south_north.6" vType="car" speedFactor="1.10" vaporized=""/>
    <tripinfo id="flow_north_east.2" depart="147.00" departLane="north_in_0" departPos="5.10" departPosLat="0.00" departSpeed="0.00" departDelay="3.00" arrival="277.00" arrivalLane="east_out_0" arrivalPos="189.60" arrivalPosLat="0.00" arrivalSpeed="15.14" duration="130.00" routeLength="396.09" waitingTime="83.00" waitingCount="3" stopTime="0.00" timeLoss="104.19" rerouteNo="0" devices="tripinfo_flow_north_east.2" vType="car" speedFactor="1.15" vaporized=""/>
    <tripinfo id="flow_south_west.2" depart="206.00" departLane="south_in_0" departPos="5.10" departPosLat="0.00" departSpeed="0.00" departDelay="0.29" arrival="278.00" arrivalLane="west_out_0" arrivalPos="189.60" arrivalPosLat="0.00" arrivalSpeed="13.49" duration="72.00" routeLength="396.09" waitingTime="26.00" waitingCount="2" stopTime="0.00" timeLoss="43.56" rerouteNo="0" devices="tripinfo_flow_south_west.2" vType="car" speedFactor="1.04" vaporized=""/>
    <tripinfo id="flow_east_north.3" depart="243.00" departLane="east_in_0" departPos="5.10" departPosLat="0.00" departSpeed="0.00" departDelay="3.00" arrival="293.00" arrivalLane="north_out_1" arrivalPos="189.60" arrivalPosLat="0.00" arrivalSpeed="10.88" duration="50.00" routeLength="388.29" waitingTime="9.00" waitingCount="1" stopTime="0.00" timeLoss="16.69" rerouteNo="0" devices="tripinfo_flow_east_north.3" vType="car" speedFactor="0.87" vaporized=""/>
    <tripinfo id="flow_west_south.2" depart="183.00" departLane="west_in_0" departPos="5.10" departPosLat="0.00" departSpeed="0.00" departDelay="3.00" arrival="294.00" arrivalLane="south_out_1" arrivalPos="189.60" arrivalPosLat="0.00" arrivalSpeed="11.08" duration="111.00" routeLength="388.29" waitingTime="65.00" waitingCount="2" stopTime="0.00" timeLoss="76.70" rerouteNo="0" devices="tripinfo_flow_west_south.2" vType="car" speedFactor="0.85" vaporized=""/>
    <tripinfo id="flow_east_west.5" depart="200.00" departLane="east_in_0" departPos="5.10" departPosLat="0.00" departSpeed="0.00" departDelay="0.00" arrival="296.00" arrivalLane="west_out_0" arrivalPos="189.60" arrivalPosLat="0.00" arrivalSpeed="12.34" duration="96.00" routeLength="394.90" waitingTime="51.00" waitingCount="1" stopTime="0.00" timeLoss="64.79" rerouteNo="0" devices="tripinfo_flow_east_west.5" vType="car" speedFactor="0.92" vaporized=""/>
    <tripinfo id="flow_west_east.6" depart="216.00" departLane="west_in_0" departPos="5.10" departPosLat="0.00" departSpeed="0.00" departDelay="0.00" arrival="297.00" arrivalLane="east_out_0" arrivalPos="189.60" arrivalPosLat="0.00" arrivalSpeed="12.26" duration="81.00" routeLength="394.90" waitingTime="38.00" waitingCount="2" stopTime="0.00" timeLoss="49.24" rerouteNo="0" devices="tripinfo_flow_west_east.6" vType="car" speedFactor="0.91" vaporized=""/>
    <tripinfo id="flow_east_west.6" depart="240.00" departLane="east_in_0" departPos="5.10" departPosLat="0.00" departSpeed="0.00" departDelay="0.00" arrival="298.00" arrivalLane="west_out_0" arrivalPos="189.60" arrivalPosLat="0.00" arrivalSpeed="14.93" duration="58.00" routeLength="394.90" waitingTime="13.00" waitingCount="1" stopTime="0.00" timeLoss="32.22" rerouteNo="0" devices="tripinfo_flow_east_west.6" vType="car" speedFactor="1.14" vaporized=""/>
    <tripinfo id="flow_west_east.7" depart="252.00" departLane="west_in_0" departPos="5.10" departPosLat="0.00" departSpeed="0.00" departDelay="0.00" arrival="299.00" arrivalLane="east_out_0" arrivalPos="189.60" arrivalPosLat="0.00" arrivalSpeed="12.45" duration="47.00" routeLength="394.90" waitingTime="3.00" waitingCount="2" stopTime="0.00" timeLoss="17.15" rerouteNo="0" devices="tripinfo_flow_west_east.7" vType="car" speedFactor="0.97" vaporized=""/>
    <tripinfo id="flow_east_west.7" depart="280.00" departLane="east_in_0" departPos="5.10" departPosLat="0.00" departSpeed="0.00" departDelay="0.00" arrival="311.00" arrivalLane="west_out_0" arrivalPos="189.60" arrivalPosLat="0.00" arrivalSpeed="14.89" duration="31.00" routeLength="394.90" waitingTime="0.00" waitingCount="0" stopTime="0.00" timeLoss="4.18" rerouteNo="0" devices="tripinfo_flow_east_west.7" vType="car" speedFactor="1.08" vaporized=""/>
    <tripinfo id="flow_west_north.3" depart="219.00" departLane="west_in_0" departPos="5.10" departPosLat="0.00" departSpeed="0.00" departDelay="3.00" arrival="319.00" arrivalLane="north_out_0" arrivalPos="189.60" arrivalPosLat="0.00" arrivalSpeed="13.88" duration="100.00" routeLength="396.09" waitingTime="58.00" waitingCount="2" stopTime="0.00" timeLoss="72.30" rerouteNo="0" devices="tripinfo_flow_west_north.3" vType="car" speedFactor="1.05" vaporized=""/>
    <tripinfo id="flow_east_south.3" depart="270.00" departLane="east_in_0" departPos="5.10" departPosLat="0.00" departSpeed="0.00" departDelay="0.00" arrival="322.00" arrivalLane="south_out_0" arrivalPos="189.60" arrivalPosLat="0.00" arrivalSpeed="11.54" duration="52.00" routeLength="396.09" waitingTime="9.00" waitingCount="1" stopTime="0.00" timeLoss="18.01" rerouteNo="0" devices="tripinfo_flow_east_south.3" vType="car" speedFactor="0.88" vaporized=""/>
    <tripinfo id="flow_south_east.3" depart="243.00" departLane="south_in_0" departPos="5.10" departPosLat="0.00" departSpeed="0.00" departDelay="3.00" arrival="331.00" arrivalLane="east_out_1" arrivalPos="189.60" arrivalPosLat="0.00" arrivalSpeed="14.54" duration="88.00" routeLength="388.29" waitingTime="48.00" waitingCount="1" stopTime="0.00" timeLoss="60.52" rerouteNo="0" devices="tripinfo_flow_south_east.3" vType="car" speedFactor="1.07" vaporized=""/>
    <tripinfo id="flow_north_south.7" depart="252.00" departLane="north_in_0" departPos="5.10" departPosLat="0.00" departSpeed="0.00" departDelay="0.00" arrival="334.00" arrivalLane="south_out_0" arrivalPos="189.60" arrivalPosLat="0.00" arrivalSpeed="16.32" duration="82.00" routeLength="394.90" waitingTime="42.00" waitingCount="1" stopTime="0.00" timeLoss="57.89" rerouteNo="0" devices="tripinfo_flow_north_south.7" vType="car" speedFactor="1.21" vaporized=""/>
    <tripinfo id="flow_north_west.2" depart="183.00" departLane="north_in_0" departPos="5.10" departPosLat="0.00" departSpeed="0.00" departDelay="3.00" arrival="335.00" arrivalLane="west_out_1" arrivalPos="189.60" arrivalPosLat="0.00" arrivalSpeed="10.79" duration="152.00" routeLength="388.29" waitingTime="97.00" waitingCount="3" stopTime="0.00" timeLoss="116.76" rerouteNo="0" devices="tripinfo_flow_north_west.2" vType="car" speedFactor="0.83" vaporized=""/>
    <tripinfo id="flow_south_north.7" depart="280.00" departLane="south_in_0" departPos="5.10" departPosLat="0.00" departSpeed="0.00" departDelay="0.00" arrival="335.00" arrivalLane="north_out_0" arrivalPos="189.60" arrivalPosLat="0.00" arrivalSpeed="15.05" duration="55.00" routeLength="394.90" waitingTime="14.00" waitingCount="2" stopTime="0.00" timeLoss="30.05" rerouteNo="0" devices="tripinfo_flow_south_north.7" vType="car" speedFactor="1.16" vaporized=""/>